<?xml version="1.0" encoding="UTF-8"?>

<!-- generated on 2026-04-25 18:18:33 by Eclipse SUMO GUI Version 1.18.0
<configuration xmlns:xsi="http://www.w3.org/2001/XMLSchema-instance" xsi:noNamespaceSchemaLocation="http://sumo.dlr.de/xsd/sumoConfiguration.xsd">

    <input>
        <net-file value="./sumo/net.net.xml"/>
        <route-files value="./sumo/routes.rou.xml"/>
    </input>

    <output>
        <tripinfo-output value="./sumo/tripinfo.xml"/>
    </output>

    <time>
        <begin value="0"/>
        <end value="2000"/>
        <step-length value="1"/>
    </time>

    <processing>
        <time-to-teleport value="900"/>
        <time-to-teleport.highways value="-1"/>
    </processing>

    <report>
        <verbose value="false"/>
        <no-warnings value="false"/>
        <no-step-log value="true"/>
    </report>

    <traci_server>
        <remote-port value="33111"/>
    </traci_server>

    <gui_only>
        <start value="true"/>
        <delay value="20"/>
    </gui_only>

</configuration>
-->

<tripinfos xmlns:xsi="http://www.w3.org/2001/XMLSchema-instance" xsi:noNamespaceSchemaLocation="http://sumo.dlr.de/xsd/tripinfo_file.xsd">
    <tripinfo id="warm_NS.0" depart="0.00" departLane="N1_J1_0" departPos="5.10" departSpeed="13.78" departDelay="0.00" arrival="38.00" arrivalLane="J3_S1_0" arrivalPos="92.80" arrivalSpeed="13.23" duration="38.00" routeLength="394.90" waitingTime="4.00" waitingCount="1" stopTime="0.00" timeLoss="9.21" rerouteNo="1" devices="tripinfo_warm_NS.0 routing_warm_NS.0" vType="DEFAULT_VEHTYPE" speedFactor="1.06" vaporized=""/>
    <tripinfo id="warm_EW.0" depart="0.00" departLane="W1_J1_0" departPos="5.10" departSpeed="12.20" departDelay="0.00" arrival="56.00" arrivalLane="J2_E1_0" arrivalPos="92.80" arrivalSpeed="11.32" duration="56.00" routeLength="394.90" waitingTime="16.00" waitingCount="1" stopTime="0.00" timeLoss="23.55" rerouteNo="1" devices="tripinfo_warm_EW.0 routing_warm_EW.0" vType="DEFAULT_VEHTYPE" speedFactor="0.94" vaporized=""/>
    <tripinfo id="warm_NS.1" depart="18.00" departLane="N1_J1_0" departPos="5.10" departSpeed="13.14" departDelay="0.00" arrival="70.00" arrivalLane="J3_S1_0" arrivalPos="92.80" arrivalSpeed="12.54" duration="52.00" routeLength="394.90" waitingTime="15.00" waitingCount="1" stopTime="0.00" timeLoss="21.40" rerouteNo="1" devices="tripinfo_warm_NS.1 routing_warm_NS.1" vType="DEFAULT_VEHTYPE" speedFactor="1.01" vaporized=""/>
    <tripinfo id="warm_EW.1" depart="18.00" departLane="W1_J1_0" departPos="5.10" departSpeed="14.08" departDelay="0.00" arrival="98.00" arrivalLane="J2_E1_0" arrivalPos="92.80" arrivalSpeed="12.94" duration="80.00" routeLength="394.90" waitingTime="39.00" waitingCount="2" stopTime="0.00" timeLoss="51.43" rerouteNo="1" devices="tripinfo_warm_EW.1 routing_warm_EW.1" vType="DEFAULT_VEHTYPE" speedFactor="1.08" vaporized=""/>
    <tripinfo id="warm_NS.2" depart="36.00" departLane="N1_J1_0" departPos="5.10" departSpeed="13.39" departDelay="0.00" arrival="105.00" arrivalLane="J3_S1_0" arrivalPos="92.80" arrivalSpeed="13.07" duration="69.00" routeLength="394.90" waitingTime="27.00" waitingCount="1" stopTime="0.00" timeLoss="38.92" rerouteNo="1" devices="tripinfo_warm_NS.2 routing_warm_NS.2" vType="DEFAULT_VEHTYPE" speedFactor="1.03" vaporized=""/>
    <tripinfo id="warm_NS.3" depart="54.00" departLane="N1_J1_0" departPos="5.10" departSpeed="13.60" departDelay="0.00" arrival="137.00" arrivalLane="J3_S1_0" arrivalPos="92.80" arrivalSpeed="12.71" duration="83.00" routeLength="394.90" waitingTime="42.00" waitingCount="2" stopTime="0.00" timeLoss="53.81" rerouteNo="1" devices="tripinfo_warm_NS.3 routing_warm_NS.3" vType="DEFAULT_VEHTYPE" speedFactor="1.05" vaporized=""/>
    <tripinfo id="warm_EW.2" depart="36.00" departLane="W1_J1_0" departPos="5.10" departSpeed="10.80" departDelay="0.00" arrival="148.00" arrivalLane="J2_E1_0" arrivalPos="92.80" arrivalSpeed="10.64" duration="112.00" routeLength="394.90" waitingTime="63.00" waitingCount="2" stopTime="0.00" timeLoss="74.62" rerouteNo="1" devices="tripinfo_warm_EW.2 routing_warm_EW.2" vType="DEFAULT_VEHTYPE" speedFactor="0.83" vaporized=""/>
    <tripinfo id="warm_NS.4" depart="72.00" departLane="N1_J1_0" departPos="5.10" departSpeed="12.19" departDelay="0.00" arrival="171.00" arrivalLane="J3_S1_0" arrivalPos="92.80" arrivalSpeed="11.58" duration="99.00" routeLength="394.90" waitingTime="51.00" waitingCount="3" stopTime="0.00" timeLoss="66.58" rerouteNo="1" devices="tripinfo_warm_NS.4 routing_warm_NS.4" vType="DEFAULT_VEHTYPE" speedFactor="0.94" vaporized=""/>
    <tripinfo id="warm_EW.3" depart="54.00" departLane="W1_J1_0" departPos="5.10" departSpeed="11.52" departDelay="0.00" arrival="187.00" arrivalLane="J2_E1_0" arrivalPos="92.80" arrivalSpeed="11.42" duration="133.00" routeLength="394.90" waitingTime="81.00" waitingCount="3" stopTime="0.00" timeLoss="98.14" rerouteNo="1" devices="tripinfo_warm_EW.3 routing_warm_EW.3" vType="DEFAULT_VEHTYPE" speedFactor="0.89" vaporized=""/>
    <tripinfo id="warm_NS.5" depart="90.00" departLane="N1_J1_0" departPos="5.10" departSpeed="14.18" departDelay="0.00" arrival="203.00" arrivalLane="J3_S1_0" arrivalPos="92.80" arrivalSpeed="14.10" duration="113.00" routeLength="394.90" waitingTime="70.00" waitingCount="3" stopTime="0.00" timeLoss="85.03" rerouteNo="1" devices="tripinfo_warm_NS.5 routing_warm_NS.5" vType="DEFAULT_VEHTYPE" speedFactor="1.09" vaporized=""/>
    <tripinfo id="warm_EW.4" depart="72.00" departLane="W1_J1_0" departPos="5.10" departSpeed="11.14" departDelay="0.00" arrival="236.00" arrivalLane="J2_E1_0" arrivalPos="92.80" arrivalSpeed="10.23" duration="164.00" routeLength="394.90" waitingTime="113.00" waitingCount="3" stopTime="0.00" timeLoss="128.15" rerouteNo="1" devices="tripinfo_warm_EW.4 routing_warm_EW.4" vType="DEFAULT_VEHTYPE" speedFactor="0.86" vaporized=""/>
    <tripinfo id="warm_NS.6" depart="108.00" departLane="N1_J1_0" departPos="5.10" departSpeed="13.61" departDelay="0.00" arrival="237.00" arrivalLane="J3_S1_0" arrivalPos="92.80" arrivalSpeed="12.72" duration="129.00" routeLength="394.90" waitingTime="77.00" waitingCount="4" stopTime="0.00" timeLoss="99.41" rerouteNo="1" devices="tripinfo_warm_NS.6 routing_warm_NS.6" vType="DEFAULT_VEHTYPE" speedFactor="1.05" vaporized=""/>
    <tripinfo id="warm_EW.5" depart="90.00" departLane="W1_J1_0" departPos="5.10" departSpeed="13.34" departDelay="0.00" arrival="268.00" arrivalLane="J2_E1_0" arrivalPos="92.80" arrivalSpeed="12.69" duration="178.00" routeLength="394.90" waitingTime="125.00" waitingCount="4" stopTime="0.00" timeLoss="148.08" rerouteNo="1" devices="tripinfo_warm_EW.5 routing_warm_EW.5" vType="DEFAULT_VEHTYPE" speedFactor="1.03" vaporized=""/>
    <tripinfo id="warm_NS.7" depart="126.00" departLane="N1_J1_0" departPos="5.10" departSpeed="12.89" departDelay="0.00" arrival="270.00" arrivalLane="J3_S1_0" arrivalPos="92.80" arrivalSpeed="11.66" duration="144.00" routeLength="394.90" waitingTime="89.00" waitingCount="4" stopTime="0.00" timeLoss="112.99" rerouteNo="1" devices="tripinfo_warm_NS.7 routing_warm_NS.7" vType="DEFAULT_VEHTYPE" speedFactor="0.99" vaporized=""/>
    <tripinfo id="warm_EW.6" depart="108.00" departLane="W1_J1_0" departPos="5.10" departSpeed="14.60" departDelay="0.00" arrival="301.00" arrivalLane="J2_E1_0" arrivalPos="92.80" arrivalSpeed="14.43" duration="193.00" routeLength="394.90" waitingTime="139.00" waitingCount="5" stopTime="0.00" timeLoss="165.92" rerouteNo="1" devices="tripinfo_warm_EW.6 routing_warm_EW.6" vType="DEFAULT_VEHTYPE" speedFactor="1.12" vaporized=""/>
    <tripinfo id="warm_NS.8" depart="144.00" departLane="N1_J1_0" departPos="5.10" departSpeed="11.42" departDelay="0.00" arrival="304.00" arrivalLane="J3_S1_0" arrivalPos="92.80" arrivalSpeed="10.71" duration="160.00" routeLength="394.90" waitingTime="104.00" waitingCount="4" stopTime="0.00" timeLoss="124.72" rerouteNo="1" devices="tripinfo_warm_NS.8 routing_warm_NS.8" vType="DEFAULT_VEHTYPE" speedFactor="0.88" vaporized=""/>
    <tripinfo id="warm_NS.13" depart="234.00" departLane="N1_J1_0" departPos="5.10" departSpeed="11.92" departDelay="0.00" arrival="326.00" arrivalLane="J3_S1_0" arrivalPos="92.80" arrivalSpeed="11.03" duration="92.00" routeLength="783.74" waitingTime="7.00" waitingCount="1" stopTime="0.00" timeLoss="23.05" rerouteNo="1" devices="tripinfo_warm_NS.13 routing_warm_NS.13" vType="DEFAULT_VEHTYPE" speedFactor="0.92" vaporized=""/>
    <tripinfo id="warm_NS.14" depart="252.00" departLane="N1_J1_0" departPos="5.10" departSpeed="14.71" departDelay="0.00" arrival="327.00" arrivalLane="J3_S1_0" arrivalPos="92.80" arrivalSpeed="13.96" duration="75.00" routeLength="783.74" waitingTime="0.00" waitingCount="0" stopTime="0.00" timeLoss="19.34" rerouteNo="1" devices="tripinfo_warm_NS.14 routing_warm_NS.14" vType="DEFAULT_VEHTYPE" speedFactor="1.13" vaporized=""/>
    <tripinfo id="warm_NS.9" depart="162.00" departLane="N1_J1_0" departPos="5.10" departSpeed="12.17" departDelay="0.00" arrival="337.00" arrivalLane="J3_S1_0" arrivalPos="92.80" arrivalSpeed="11.02" duration="175.00" routeLength="394.90" waitingTime="112.00" waitingCount="5" stopTime="0.00" timeLoss="141.94" rerouteNo="1" devices="tripinfo_warm_NS.9 routing_warm_NS.9" vType="DEFAULT_VEHTYPE" speedFactor="0.94" vaporized=""/>
    <tripinfo id="warm_EW.7" depart="126.00" departLane="W1_J1_0" departPos="5.10" departSpeed="12.05" departDelay="0.00" arrival="342.00" arrivalLane="J2_E1_0" arrivalPos="92.80" arrivalSpeed="11.26" duration="216.00" routeLength="394.90" waitingTime="155.00" waitingCount="5" stopTime="0.00" timeLoss="182.40" rerouteNo="1" devices="tripinfo_warm_EW.7 routing_warm_EW.7" vType="DEFAULT_VEHTYPE" speedFactor="0.93" vaporized=""/>
    <tripinfo id="warm_NS.15" depart="270.00" departLane="N1_J1_0" departPos="5.10" departSpeed="15.32" departDelay="0.00" arrival="356.00" arrivalLane="J3_S1_0" arrivalPos="92.80" arrivalSpeed="15.22" duration="86.00" routeLength="783.74" waitingTime="15.00" waitingCount="2" stopTime="0.00" timeLoss="33.06" rerouteNo="1" devices="tripinfo_warm_NS.15 routing_warm_NS.15" vType="DEFAULT_VEHTYPE" speedFactor="1.18" vaporized=""/>
    <tripinfo id="warm_NS.16" depart="288.00" departLane="N1_J1_0" departPos="5.10" departSpeed="13.07" departDelay="0.00" arrival="360.00" arrivalLane="J3_S1_0" arrivalPos="92.80" arrivalSpeed="11.85" duration="72.00" routeLength="783.74" waitingTime="0.00" waitingCount="0" stopTime="0.00" timeLoss="8.66" rerouteNo="1" devices="tripinfo_warm_NS.16 routing_warm_NS.16" vType="DEFAULT_VEHTYPE" speedFactor="1.01" vaporized=""/>
    <tripinfo id="warm_NS.10" depart="180.00" departLane="N1_J1_0" departPos="5.10" departSpeed="13.24" departDelay="0.00" arrival="369.00" arrivalLane="J3_S1_0" arrivalPos="92.80" arrivalSpeed="12.23" duration="189.00" routeLength="394.90" waitingTime="131.00" waitingCount="5" stopTime="0.00" timeLoss="158.83" rerouteNo="1" devices="tripinfo_warm_NS.10 routing_warm_NS.10" vType="DEFAULT_VEHTYPE" speedFactor="1.02" vaporized=""/>
    <tripinfo id="warm_EW.8" depart="144.00" departLane="W1_J1_0" departPos="5.10" departSpeed="12.24" departDelay="0.00" arrival="378.00" arrivalLane="J2_E1_0" arrivalPos="92.80" arrivalSpeed="10.98" duration="234.00" routeLength="394.90" waitingTime="166.00" waitingCount="6" stopTime="0.00" timeLoss="200.96" rerouteNo="1" devices="tripinfo_warm_EW.8 routing_warm_EW.8" vType="DEFAULT_VEHTYPE" speedFactor="0.94" vaporized=""/>
    <tripinfo id="warm_NS.17" depart="306.00" departLane="N1_J1_0" departPos="5.10" departSpeed="12.93" departDelay="0.00" arrival="392.00" arrivalLane="J3_S1_0" arrivalPos="92.80" arrivalSpeed="11.94" duration="86.00" routeLength="783.74" waitingTime="8.00" waitingCount="1" stopTime="0.00" timeLoss="22.99" rerouteNo="1" devices="tripinfo_warm_NS.17 routing_warm_NS.17" vType="DEFAULT_VEHTYPE" speedFactor="0.99" vaporized=""/>
    <tripinfo id="warm_NS.11" depart="198.00" departLane="N1_J1_0" departPos="5.10" departSpeed="12.67" departDelay="0.00" arrival="402.00" arrivalLane="J3_S1_0" arrivalPos="92.80" arrivalSpeed="11.66" duration="204.00" routeLength="394.90" waitingTime="143.00" waitingCount="6" stopTime="0.00" timeLoss="172.45" rerouteNo="1" devices="tripinfo_warm_NS.11 routing_warm_NS.11" vType="DEFAULT_VEHTYPE" speedFactor="0.97" vaporized=""/>
    <tripinfo id="warm_EW.9" depart="162.00" departLane="W1_J1_0" departPos="5.10" departSpeed="15.06" departDelay="0.00" arrival="409.00" arrivalLane="J2_E1_0" arrivalPos="92.80" arrivalSpeed="14.26" duration="247.00" routeLength="394.90" waitingTime="183.00" waitingCount="6" stopTime="0.00" timeLoss="220.31" rerouteNo="1" devices="tripinfo_warm_EW.9 routing_warm_EW.9" vType="DEFAULT_VEHTYPE" speedFactor="1.16" vaporized=""/>
    <tripinfo id="warm_NS.18" depart="324.00" departLane="N1_J1_0" departPos="5.10" departSpeed="12.65" departDelay="0.00" arrival="414.00" arrivalLane="J3_S1_0" arrivalPos="92.80" arrivalSpeed="12.00" duration="90.00" routeLength="783.74" waitingTime="10.00" waitingCount="2" stopTime="0.00" timeLoss="25.45" rerouteNo="1" devices="tripinfo_warm_NS.18 routing_warm_NS.18" vType="DEFAULT_VEHTYPE" speedFactor="0.97" vaporized=""/>
    <tripinfo id="warm_NS.19" depart="342.00" departLane="N1_J1_0" departPos="5.10" departSpeed="14.33" departDelay="0.00" arrival="421.00" arrivalLane="J3_S1_0" arrivalPos="92.80" arrivalSpeed="13.34" duration="79.00" routeLength="783.74" waitingTime="9.00" waitingCount="1" stopTime="0.00" timeLoss="21.33" rerouteNo="1" devices="tripinfo_warm_NS.19 routing_warm_NS.19" vType="DEFAULT_VEHTYPE" speedFactor="1.10" vaporized=""/>
    <tripinfo id="warm_NS.12" depart="216.00" departLane="N1_J1_0" departPos="5.10" departSpeed="10.73" departDelay="0.00" arrival="428.00" arrivalLane="J3_S1_0" arrivalPos="92.80" arrivalSpeed="10.43" duration="212.00" routeLength="394.90" waitingTime="143.00" waitingCount="6" stopTime="0.00" timeLoss="174.28" rerouteNo="1" devices="tripinfo_warm_NS.12 routing_warm_NS.12" vType="DEFAULT_VEHTYPE" speedFactor="0.83" vaporized=""/>
    <tripinfo id="warm_NS.20" depart="360.00" departLane="N1_J1_0" departPos="5.10" departSpeed="13.40" departDelay="0.00" arrival="438.00" arrivalLane="J3_S1_0" arrivalPos="92.80" arrivalSpeed="12.77" duration="78.00" routeLength="783.74" waitingTime="4.00" waitingCount="1" stopTime="0.00" timeLoss="17.29" rerouteNo="1" devices="tripinfo_warm_NS.20 routing_warm_NS.20" vType="DEFAULT_VEHTYPE" speedFactor="1.03" vaporized=""/>
    <tripinfo id="warm_EW.10" depart="180.00" departLane="W1_J1_0" departPos="5.10" departSpeed="13.13" departDelay="0.00" arrival="448.00" arrivalLane="J2_E1_0" arrivalPos="92.80" arrivalSpeed="12.32" duration="268.00" routeLength="394.90" waitingTime="193.00" waitingCount="7" stopTime="0.00" timeLoss="237.37" rerouteNo="1" devices="tripinfo_warm_EW.10 routing_warm_EW.10" vType="DEFAULT_VEHTYPE" speedFactor="1.01" vaporized=""/>
    <tripinfo id="warm_NS.21" depart="378.00" departLane="N1_J1_0" departPos="5.10" departSpeed="14.19" departDelay="0.00" arrival="464.00" arrivalLane="J3_S1_0" arrivalPos="92.80" arrivalSpeed="13.08" duration="86.00" routeLength="783.74" waitingTime="13.00" waitingCount="2" stopTime="0.00" timeLoss="28.81" rerouteNo="1" devices="tripinfo_warm_NS.21 routing_warm_NS.21" vType="DEFAULT_VEHTYPE" speedFactor="1.09" vaporized=""/>
    <tripinfo id="warm_NS.22" depart="396.00" departLane="N1_J1_0" departPos="5.10" departSpeed="13.56" departDelay="0.00" arrival="467.00" arrivalLane="J3_S1_0" arrivalPos="92.80" arrivalSpeed="12.50" duration="71.00" routeLength="783.74" waitingTime="0.00" waitingCount="0" stopTime="0.00" timeLoss="10.38" rerouteNo="1" devices="tripinfo_warm_NS.22 routing_warm_NS.22" vType="DEFAULT_VEHTYPE" speedFactor="1.04" vaporized=""/>
    <tripinfo id="ns_peak.0" depart="400.00" departLane="N1_J1_0" departPos="5.10" departSpeed="12.97" departDelay="0.00" arrival="471.00" arrivalLane="J3_S1_0" arrivalPos="92.80" arrivalSpeed="12.68" duration="71.00" routeLength="783.74" waitingTime="0.00" waitingCount="0" stopTime="0.00" timeLoss="8.10" rerouteNo="1" devices="tripinfo_ns_peak.0 routing_ns_peak.0" vType="DEFAULT_VEHTYPE" speedFactor="1.00" vaporized=""/>
    <tripinfo id="warm_EW.11" depart="198.00" departLane="W1_J1_0" departPos="5.10" departSpeed="11.56" departDelay="0.00" arrival="487.00" arrivalLane="J2_E1_0" arrivalPos="92.80" arrivalSpeed="11.23" duration="289.00" routeLength="394.90" waitingTime="209.00" waitingCount="8" stopTime="0.00" timeLoss="254.29" rerouteNo="1" devices="tripinfo_warm_EW.11 routing_warm_EW.11" vType="DEFAULT_VEHTYPE" speedFactor="0.89" vaporized=""/>
    <tripinfo id="ns_secondary.0" depart="400.00" departLane="N2_J2_0" departPos="5.10" departSpeed="11.71" departDelay="0.00" arrival="490.00" arrivalLane="J4_S2_0" arrivalPos="92.80" arrivalSpeed="10.45" duration="90.00" routeLength="394.90" waitingTime="48.00" waitingCount="1" stopTime="0.00" timeLoss="56.25" rerouteNo="1" devices="tripinfo_ns_secondary.0 routing_ns_secondary.0" vType="DEFAULT_VEHTYPE" speedFactor="0.90" vaporized=""/>
    <tripinfo id="ns_secondary.1" depart="415.00" departLane="N2_J2_0" departPos="5.10" departSpeed="11.11" departDelay="0.60" arrival="493.00" arrivalLane="J4_S2_0" arrivalPos="92.80" arrivalSpeed="10.19" duration="78.00" routeLength="394.90" waitingTime="33.00" waitingCount="1" stopTime="0.00" timeLoss="41.78" rerouteNo="1" devices="tripinfo_ns_secondary.1 routing_ns_secondary.1" vType="DEFAULT_VEHTYPE" speedFactor="0.85" vaporized=""/>
    <tripinfo id="ns_secondary.2" depart="429.00" departLane="N2_J2_0" departPos="5.10" departSpeed="14.25" departDelay="0.20" arrival="494.00" arrivalLane="J4_S2_0" arrivalPos="92.80" arrivalSpeed="12.69" duration="65.00" routeLength="394.90" waitingTime="23.00" waitingCount="1" stopTime="0.00" timeLoss="37.21" rerouteNo="1" devices="tripinfo_ns_secondary.2 routing_ns_secondary.2" vType="DEFAULT_VEHTYPE" speedFactor="1.10" vaporized=""/>
    <tripinfo id="ns_peak.1" depart="411.00" departLane="N1_J1_0" departPos="5.10" departSpeed="11.06" departDelay="0.71" arrival="508.00" arrivalLane="J3_S1_0" arrivalPos="92.80" arrivalSpeed="10.24" duration="97.00" routeLength="783.74" waitingTime="9.00" waitingCount="1" stopTime="0.00" timeLoss="22.67" rerouteNo="1" devices="tripinfo_ns_peak.1 routing_ns_peak.1" vType="DEFAULT_VEHTYPE" speedFactor="0.85" vaporized=""/>
    <tripinfo id="ns_peak.6" depart="462.00" departLane="N1_J1_0" departPos="5.10" departSpeed="14.55" departDelay="0.28" arrival="510.00" arrivalLane="J3_S1_0" arrivalPos="92.80" arrivalSpeed="13.89" duration="48.00" routeLength="394.90" waitingTime="7.00" waitingCount="1" stopTime="0.00" timeLoss="20.09" rerouteNo="1" devices="tripinfo_ns_peak.6 routing_ns_peak.6" vType="DEFAULT_VEHTYPE" speedFactor="1.12" vaporized=""/>
    <tripinfo id="ns_peak.2" depart="421.00" departLane="N1_J1_0" departPos="5.10" departSpeed="13.22" departDelay="0.43" arrival="525.00" arrivalLane="J3_S1_0" arrivalPos="92.80" arrivalSpeed="12.70" duration="104.00" routeLength="783.74" waitingTime="16.00" waitingCount="2" stopTime="0.00" timeLoss="41.22" rerouteNo="1" devices="tripinfo_ns_peak.2 routing_ns_peak.2" vType="DEFAULT_VEHTYPE" speedFactor="1.02" vaporized=""/>
    <tripinfo id="ns_peak.3" depart="431.00" departLane="N1_J1_0" departPos="5.10" departSpeed="13.04" departDelay="0.14" arrival="527.00" arrivalLane="J3_S1_0" arrivalPos="92.80" arrivalSpeed="12.17" duration="96.00" routeLength="783.74" waitingTime="12.00" waitingCount="3" stopTime="0.00" timeLoss="33.16" rerouteNo="1" devices="tripinfo_ns_peak.3 routing_ns_peak.3" vType="DEFAULT_VEHTYPE" speedFactor="1.00" vaporized=""/>
    <tripinfo id="ns_secondary.3" depart="444.00" departLane="N2_J2_0" departPos="5.10" departSpeed="14.85" departDelay="0.80" arrival="530.00" arrivalLane="J4_S2_0" arrivalPos="92.80" arrivalSpeed="14.78" duration="86.00" routeLength="394.90" waitingTime="46.00" waitingCount="2" stopTime="0.00" timeLoss="59.23" rerouteNo="1" devices="tripinfo_ns_secondary.3 routing_ns_secondary.3" vType="DEFAULT_VEHTYPE" speedFactor="1.14" vaporized=""/>
    <tripinfo id="ns_peak.4" depart="442.00" departLane="N1_J1_0" departPos="5.10" departSpeed="11.69" departDelay="0.86" arrival="531.00" arrivalLane="J3_S1_0" arrivalPos="92.80" arrivalSpeed="10.95" duration="89.00" routeLength="783.74" waitingTime="2.00" waitingCount="1" stopTime="0.00" timeLoss="18.60" rerouteNo="1" devices="tripinfo_ns_peak.4 routing_ns_peak.4" vType="DEFAULT_VEHTYPE" speedFactor="0.90" vaporized=""/>
    <tripinfo id="warm_EW.12" depart="216.00" departLane="W1_J1_0" departPos="5.10" departSpeed="11.34" departDelay="0.00" arrival="532.00" arrivalLane="J2_E1_0" arrivalPos="92.80" arrivalSpeed="11.13" duration="316.00" routeLength="394.90" waitingTime="230.00" waitingCount="9" stopTime="0.00" timeLoss="281.17" rerouteNo="1" devices="tripinfo_warm_EW.12 routing_warm_EW.12" vType="DEFAULT_VEHTYPE" speedFactor="0.87" vaporized=""/>
    <tripinfo id="ns_peak.5" depart="452.00" departLane="N1_J1_0" departPos="5.10" departSpeed="13.31" departDelay="0.57" arrival="533.00" arrivalLane="J3_S1_0" arrivalPos="92.80" arrivalSpeed="13.27" duration="81.00" routeLength="783.74" waitingTime="8.00" waitingCount="1" stopTime="0.00" timeLoss="18.75" rerouteNo="1" devices="tripinfo_ns_peak.5 routing_ns_peak.5" vType="DEFAULT_VEHTYPE" speedFactor="1.02" vaporized=""/>
    <tripinfo id="ns_secondary.4" depart="458.00" departLane="N2_J2_0" departPos="5.10" departSpeed="12.60" departDelay="0.40" arrival="536.00" arrivalLane="J4_S2_0" arrivalPos="92.80" arrivalSpeed="12.30" duration="78.00" routeLength="394.90" waitingTime="36.00" waitingCount="1" stopTime="0.00" timeLoss="46.11" rerouteNo="1" devices="tripinfo_ns_secondary.4 routing_ns_secondary.4" vType="DEFAULT_VEHTYPE" speedFactor="0.97" vaporized=""/>
    <tripinfo id="ns_peak.7" depart="473.00" departLane="N1_J1_0" departPos="5.10" departSpeed="12.83" departDelay="1.00" arrival="537.00" arrivalLane="J3_S1_0" arrivalPos="92.80" arrivalSpeed="12.51" duration="64.00" routeLength="394.90" waitingTime="23.00" waitingCount="1" stopTime="0.00" timeLoss="32.97" rerouteNo="1" devices="tripinfo_ns_peak.7 routing_ns_peak.7" vType="DEFAULT_VEHTYPE" speedFactor="0.99" vaporized=""/>
    <tripinfo id="ns_secondary.5" depart="472.00" departLane="N2_J2_0" departPos="5.10" departSpeed="13.21" departDelay="0.00" arrival="538.00" arrivalLane="J4_S2_0" arrivalPos="92.80" arrivalSpeed="12.42" duration="66.00" routeLength="394.90" waitingTime="25.00" waitingCount="1" stopTime="0.00" timeLoss="35.32" rerouteNo="1" devices="tripinfo_ns_secondary.5 routing_ns_secondary.5" vType="DEFAULT_VEHTYPE" speedFactor="1.02" vaporized=""/>
    <tripinfo id="ns_peak.8" depart="483.00" departLane="N1_J1_0" departPos="5.10" departSpeed="11.47" departDelay="0.71" arrival="571.00" arrivalLane="J3_S1_0" arrivalPos="92.80" arrivalSpeed="10.23" duration="88.00" routeLength="394.90" waitingTime="41.00" waitingCount="2" stopTime="0.00" timeLoss="52.71" rerouteNo="1" devices="tripinfo_ns_peak.8 routing_ns_peak.8" vType="DEFAULT_VEHTYPE" speedFactor="0.88" vaporized=""/>
    <tripinfo id="warm_EW.13" depart="234.00" departLane="W1_J1_0" departPos="5.10" departSpeed="12.33" departDelay="0.00" arrival="581.00" arrivalLane="J2_E1_0" arrivalPos="92.80" arrivalSpeed="11.59" duration="347.00" routeLength="394.90" waitingTime="257.00" waitingCount="10" stopTime="0.00" timeLoss="314.05" rerouteNo="1" devices="tripinfo_warm_EW.13 routing_warm_EW.13" vType="DEFAULT_VEHTYPE" speedFactor="0.95" vaporized=""/>
    <tripinfo id="ns_peak.9" depart="493.00" departLane="N1_J1_0" departPos="5.10" departSpeed="11.89" departDelay="0.43" arrival="603.00" arrivalLane="J3_S1_0" arrivalPos="92.80" arrivalSpeed="11.21" duration="110.00" routeLength="394.90" waitingTime="60.00" waitingCount="3" stopTime="0.00" timeLoss="76.31" rerouteNo="1" devices="tripinfo_ns_peak.9 routing_ns_peak.9" vType="DEFAULT_VEHTYPE" speedFactor="0.91" vaporized=""/>
    <tripinfo id="warm_EW.14" depart="252.00" departLane="W1_J1_0" departPos="5.10" departSpeed="12.11" departDelay="0.00" arrival="606.00" arrivalLane="J2_E1_0" arrivalPos="92.80" arrivalSpeed="10.85" duration="354.00" routeLength="394.90" waitingTime="265.00" waitingCount="10" stopTime="0.00" timeLoss="320.68" rerouteNo="1" devices="tripinfo_warm_EW.14 routing_warm_EW.14" vType="DEFAULT_VEHTYPE" speedFactor="0.93" vaporized=""/>
    <tripinfo id="ns_secondary.6" depart="487.00" departLane="N2_J2_0" departPos="5.10" departSpeed="11.79" departDelay="0.60" arrival="622.00" arrivalLane="J4_S2_0" arrivalPos="92.80" arrivalSpeed="11.47" duration="135.00" routeLength="394.90" waitingTime="82.00" waitingCount="3" stopTime="0.00" timeLoss="100.58" rerouteNo="1" devices="tripinfo_ns_secondary.6 routing_ns_secondary.6" vType="DEFAULT_VEHTYPE" speedFactor="0.91" vaporized=""/>
    <tripinfo id="ns_secondary.7" depart="501.00" departLane="N2_J2_0" departPos="5.10" departSpeed="13.29" departDelay="0.20" arrival="623.00" arrivalLane="J4_S2_0" arrivalPos="92.80" arrivalSpeed="12.36" duration="122.00" routeLength="394.90" waitingTime="70.00" waitingCount="3" stopTime="0.00" timeLoss="92.04" rerouteNo="1" devices="tripinfo_ns_secondary.7 routing_ns_secondary.7" vType="DEFAULT_VEHTYPE" speedFactor="1.02" vaporized=""/>
    <tripinfo id="ns_secondary.8" depart="516.00" departLane="N2_J2_0" departPos="5.10" departSpeed="12.22" departDelay="0.80" arrival="625.00" arrivalLane="J4_S2_0" arrivalPos="92.80" arrivalSpeed="11.31" duration="109.00" routeLength="394.90" waitingTime="61.00" waitingCount="2" stopTime="0.00" timeLoss="76.47" rerouteNo="1" devices="tripinfo_ns_secondary.8 routing_ns_secondary.8" vType="DEFAULT_VEHTYPE" speedFactor="0.94" vaporized=""/>
    <tripinfo id="ns_secondary.9" depart="530.00" departLane="N2_J2_0" departPos="5.10" departSpeed="12.80" departDelay="0.40" arrival="627.00" arrivalLane="J4_S2_0" arrivalPos="92.80" arrivalSpeed="11.74" duration="97.00" routeLength="394.90" waitingTime="49.00" waitingCount="2" stopTime="0.00" timeLoss="65.79" rerouteNo="1" devices="tripinfo_ns_secondary.9 routing_ns_secondary.9" vType="DEFAULT_VEHTYPE" speedFactor="0.98" vaporized=""/>
    <tripinfo id="ns_secondary.10" depart="544.00" departLane="N2_J2_0" departPos="5.10" departSpeed="13.09" departDelay="0.00" arrival="629.00" arrivalLane="J4_S2_0" arrivalPos="92.80" arrivalSpeed="12.01" duration="85.00" routeLength="394.90" waitingTime="41.00" waitingCount="2" stopTime="0.00" timeLoss="54.69" rerouteNo="1" devices="tripinfo_ns_secondary.10 routing_ns_secondary.10" vType="DEFAULT_VEHTYPE" speedFactor="1.01" vaporized=""/>
    <tripinfo id="ns_secondary.11" depart="559.00" departLane="N2_J2_0" departPos="5.10" departSpeed="12.98" departDelay="0.60" arrival="631.00" arrivalLane="J4_S2_0" arrivalPos="92.80" arrivalSpeed="12.40" duration="72.00" routeLength="394.90" waitingTime="34.00" waitingCount="1" stopTime="0.00" timeLoss="41.36" rerouteNo="1" devices="tripinfo_ns_secondary.11 routing_ns_secondary.11" vType="DEFAULT_VEHTYPE" speedFactor="1.00" vaporized=""/>
    <tripinfo id="ns_secondary.12" depart="573.00" departLane="N2_J2_0" departPos="5.10" departSpeed="14.92" departDelay="0.20" arrival="633.00" arrivalLane="J4_S2_0" arrivalPos="92.80" arrivalSpeed="14.60" duration="60.00" routeLength="394.90" waitingTime="22.00" waitingCount="1" stopTime="0.00" timeLoss="32.97" rerouteNo="1" devices="tripinfo_ns_secondary.12 routing_ns_secondary.12" vType="DEFAULT_VEHTYPE" speedFactor="1.15" vaporized=""/>
    <tripinfo id="ns_peak.10" depart="503.00" departLane="N1_J1_0" departPos="5.10" departSpeed="13.30" departDelay="0.14" arrival="635.00" arrivalLane="J3_S1_0" arrivalPos="92.80" arrivalSpeed="13.10" duration="132.00" routeLength="394.90" waitingTime="78.00" waitingCount="3" stopTime="0.00" timeLoss="102.19" rerouteNo="1" devices="tripinfo_ns_peak.10 routing_ns_peak.10" vType="DEFAULT_VEHTYPE" speedFactor="1.02" vaporized=""/>
    <tripinfo id="ns_secondary.13" depart="588.00" departLane="N2_J2_0" departPos="5.10" departSpeed="13.09" departDelay="0.80" arrival="635.00" arrivalLane="J4_S2_0" arrivalPos="92.80" arrivalSpeed="12.74" duration="47.00" routeLength="394.90" waitingTime="7.00" waitingCount="1" stopTime="0.00" timeLoss="16.28" rerouteNo="1" devices="tripinfo_ns_secondary.13 routing_ns_secondary.13" vType="DEFAULT_VEHTYPE" speedFactor="1.01" vaporized=""/>
    <tripinfo id="warm_EW.15" depart="270.00" departLane="W1_J1_0" departPos="5.10" departSpeed="10.90" departDelay="0.00" arrival="640.00" arrivalLane="J2_E1_0" arrivalPos="92.80" arrivalSpeed="14.27" duration="370.00" routeLength="394.90" waitingTime="277.00" waitingCount="10" stopTime="0.00" timeLoss="343.26" rerouteNo="1" devices="tripinfo_warm_EW.15 routing_warm_EW.15" vType="DEFAULT_VEHTYPE" speedFactor="1.15" vaporized=""/>
    <tripinfo id="ns_peak.11" depart="514.00" departLane="N1_J1_0" departPos="5.10" departSpeed="12.65" departDelay="0.85" arrival="669.00" arrivalLane="J3_S1_0" arrivalPos="92.80" arrivalSpeed="11.59" duration="155.00" routeLength="394.90" waitingTime="105.00" waitingCount="4" stopTime="0.00" timeLoss="123.18" rerouteNo="1" devices="tripinfo_ns_peak.11 routing_ns_peak.11" vType="DEFAULT_VEHTYPE" speedFactor="0.97" vaporized=""/>
    <tripinfo id="warm_EW.16" depart="288.00" departLane="W1_J1_0" departPos="5.10" departSpeed="8.61" departDelay="0.00" arrival="687.00" arrivalLane="J2_E1_0" arrivalPos="92.80" arrivalSpeed="15.23" duration="399.00" routeLength="394.90" waitingTime="300.00" waitingCount="10" stopTime="0.00" timeLoss="372.30" rerouteNo="1" devices="tripinfo_warm_EW.16 routing_warm_EW.16" vType="DEFAULT_VEHTYPE" speedFactor="1.17" vaporized=""/>