<?xml version="1.0" encoding="UTF-8"?>
<tripinfos>
    <tripinfo id="veh0" depart="1150.97" arrival="1174.03" duration="23.06" routeLength="254.65" waitingTime="4.13" waitingCount="1" timeLoss="7.09"/>
    <tripinfo id="veh1" depart="981.66" arrival="1023.71" duration="42.05" routeLength="313.98" waitingTime="16.43" waitingCount="1" timeLoss="16.54"/>
    <tripinfo id="veh2" depart="357.91" arrival="434.13" duration="76.22" routeLength="486.91" waitingTime="39.52" waitingCount="1" timeLoss="43.00"/>
    <tripinfo id="veh3" depart="1365.85" arrival="1397.12" duration="31.26" routeLength="266.61" waitingTime="6.34" waitingCount="1" timeLoss="7.69"/>
    <tripinfo id="veh4" depart="166.94" arrival="238.37" duration="71.43" routeLength="755.35" waitingTime="12.71" waitingCount="1" timeLoss="14.86"/>
    <tripinfo id="veh5" depart="1751.61" arrival="1806.06" duration="54.45" routeLength="583.01" waitingTime="8.28" waitingCount="1" timeLoss="8.46"/>
    <tripinfo id="veh6" depart="410.22" arrival="435.37" duration="25.15" routeLength="324.59" waitingTime="1.20" waitingCount="0" timeLoss="2.31"/>
    <tripinfo id="veh7" depart="1144.23" arrival="1200.95" duration="56.72" routeLength="652.63" waitingTime="5.55" waitingCount="1" timeLoss="8.29"/>
    <tripinfo id="veh8" depart="128.52" arrival="189.45" duration="60.92" routeLength="272.55" waitingTime="39.04" waitingCount="1" timeLoss="42.99"/>
    <tripinfo id="veh9" depart="1152.00" arrival="1221.15" duration="69.15" routeLength="321.79" waitingTime="45.81" waitingCount="1" timeLoss="47.07"/>
    <tripinfo id="veh10" depart="481.93" arrival="521.34" duration="39.40" routeLength="309.47" waitingTime="14.14" waitingCount="1" timeLoss="17.68"/>
    <tripinfo id="veh11" depart="1157.13" arrival="1212.90" duration="55.76" routeLength="710.26" waitingTime="2.09" waitingCount="1" timeLoss="4.43"/>
    <tripinfo id="veh12" depart="651.59" arrival="880.77" duration="229.18" routeLength="218.18" waitingTime="213.20" waitingCount="4" timeLoss="213.64"/>
    <tripinfo id="veh13" depart="1129.40" arrival="1198.53" duration="69.12" routeLength="438.58" waitingTime="34.00" waitingCount="1" timeLoss="35.87"/>
    <tripinfo id="veh14" depart="452.55" arrival="560.75" duration="108.21" routeLength="661.28" waitingTime="57.41" waitingCount="1" timeLoss="58.48"/>
    <tripinfo id="veh15" depart="1153.73" arrival="1175.55" duration="21.82" routeLength="152.43" waitingTime="6.52" waitingCount="1" timeLoss="9.40"/>
    <tripinfo id="veh16" depart="1749.40" arrival="1846.80" duration="97.40" routeLength="802.89" waitingTime="37.85" waitingCount="1" timeLoss="40.40"/>
    <tripinfo id="veh17" depart="1096.15" arrival="1153.62" duration="57.48" routeLength="599.21" waitingTime="11.44" waitingCount="1" timeLoss="11.89"/>
    <tripinfo id="veh18" depart="653.37" arrival="1046.18" duration="392.81" routeLength="193.44" waitingTime="373.63" waitingCount="4" timeLoss="377.41"/>
    <tripinfo id="veh19" depart="154.18" arrival="211.64" duration="57.46" routeLength="720.45" waitingTime="1.04" waitingCount="0" timeLoss="1.55"/>
    <tripinfo id="veh20" depart="855.51" arrival="927.88" duration="72.37" routeLength="873.27" waitingTime="3.98" waitingCount="1" timeLoss="7.00"/>
    <tripinfo id="veh21" depart="1241.76" arrival="1312.25" duration="70.49" routeLength="478.58" waitingTime="32.95" waitingCount="1" timeLoss="33.44"/>
    <tripinfo id="veh22" depart="404.46" arrival="455.86" duration="51.41" routeLength="591.33" waitingTime="8.82" waitingCount="1" timeLoss="11.66"/>
    <tripinfo id="veh23" depart="105.97" arrival="138.15" duration="32.18" routeLength="397.82" waitingTime="0.47" waitingCount="0" timeLoss="1.59"/>
    <tripinfo id="veh24" depart="873.75" arrival="911.34" duration="37.59" routeLength="332.25" waitingTime="10.85" waitingCount="1" timeLoss="12.48"/>
    <tripinfo id="veh25" depart="169.79" arrival="241.09" duration="71.31" routeLength="500.27" waitingTime="30.94" waitingCount="1" timeLoss="33.64"/>
    <tripinfo id="veh26" depart="1771.50" arrival="1832.18" duration="60.68" routeLength="750.44" waitingTime="6.04" waitingCount="1" timeLoss="6.81"/>
    <tripinfo id="veh27" depart="965.31" arrival="997.88" duration="32.56" routeLength="337.35" waitingTime="2.75" waitingCount="1" timeLoss="4.52"/>
    <tripinfo id="veh28" depart="1550.43" arrival="1636.34" duration="85.91" routeLength="876.75" waitingTime="17.28" waitingCount="1" timeLoss="20.67"/>
    <tripinfo id="veh29" depart="299.36" arrival="363.04" duration="63.68" routeLength="826.83" waitingTime="3.21" waitingCount="1" timeLoss="3.21"/>
    <tripinfo id="veh30" depart="702.76" arrival="896.33" duration="193.57" routeLength="467.26" waitingTime="154.22" waitingCount="3" timeLoss="158.20"/>
    <tripinfo id="veh31" depart="1000.38" arrival="1045.24" duration="44.85" routeLength="313.28" waitingTime="21.97" waitingCount="1" timeLoss="24.91"/>
    <tripinfo id="veh32" depart="109.72" arrival="152.51" duration="42.79" routeLength="507.59" waitingTime="0.75" waitingCount="0" timeLoss="2.88"/>
    <tripinfo id="veh33" depart="102.38" arrival="162.10" duration="59.72" routeLength="596.28" waitingTime="12.77" waitingCount="1" timeLoss="13.71"/>
    <tripinfo id="veh34" depart="215.80" arrival="318.77" duration="102.97" routeLength="179.81" waitingTime="89.55" waitingCount="3" timeLoss="92.18"/>
    <tripinfo id="veh35" depart="1017.41" arrival="1047.36" duration="29.96" routeLength="329.01" waitingTime="3.91" waitingCount="1" timeLoss="6.60"/>
    <tripinfo id="veh36" depart="539.99" arrival="566.29" duration="26.30" routeLength="156.99" waitingTime="11.28" waitingCount="1" timeLoss="13.53"/>
    <tripinfo id="veh37" depart="179.97" arrival="253.99" duration="74.02" routeLength="849.94" waitingTime="7.59" waitingCount="1" timeLoss="11.11"/>
    <tripinfo id="veh38" depart="665.15" arrival="727.37" duration="62.23" routeLength="608.76" waitingTime="12.51" waitingCount="1" timeLoss="15.12"/>
    <tripinfo id="veh39" depart="14.08" arrival="104.81" duration="90.73" routeLength="854.20" waitingTime="28.47" waitingCount="1" timeLoss="28.93"/>
    <tripinfo id="veh40" depart="192.66" arrival="270.65" duration="77.99" routeLength="688.21" waitingTime="27.26" waitingCount="1" timeLoss="29.79"/>
    <tripinfo id="veh41" depart="475.17" arrival="507.06" duration="31.89" routeLength="219.22" waitingTime="13.58" waitingCount="1" timeLoss="14.69"/>
    <tripinfo id="veh42" depart="6.38" arrival="72.21" duration="65.83" routeLength="271.19" waitingTime="43.67" waitingCount="2" timeLoss="46.49"/>
    <tripinfo id="veh43" depart="1009.63" arrival="1069.05" duration="59.41" routeLength="559.19" waitingTime="14.18" waitingCount="1" timeLoss="16.51"/>
    <tripinfo id="veh44" depart="266.57" arrival="331.75" duration="65.18" routeLength="824.19" waitingTime="4.62" waitingCount="1" timeLoss="5.62"/>
    <tripinfo id="veh45" depart="185.03" arrival="307.65" duration="122.62" routeLength="880.38" waitingTime="54.79" waitingCount="2" timeLoss="58.49"/>
    <tripinfo id="veh46" depart="426.13" arrival="496.62" duration="70.50" routeLength="811.06" waitingTime="12.00" waitingCount="1" timeLoss="14.94"/>
    <tripinfo id="veh47" depart="597.93" arrival="784.11" duration="186.18" routeLength="350.10" waitingTime="156.27" waitingCount="2" timeLoss="156.70"/>
    <tripinfo id="veh48" depart="1569.90" arrival="1691.17" duration="121.27" routeLength="412.24" waitingTime="86.69" waitingCount="2" timeLoss="90.18"/>
    <tripinfo id="veh49" depart="401.26" arrival="497.42" duration="96.16" routeLength="798.26" waitingTime="32.93" waitingCount="1" timeLoss="34.05"/>
    <tripinfo id="veh50" depart="1154.67" arrival="1231.55" duration="76.88" routeLength="854.43" waitingTime="14.72" waitingCount="1" timeLoss="18.60"/>
    <tripinfo id="veh51" depart="321.42" arrival="458.33" duration="136.91" routeLength="597.43" waitingTime="91.86" waitingCount="1" timeLoss="95.00"/>
    <tripinfo id="veh52" depart="785.51" arrival="1014.58" duration="229.07" routeLength="292.56" waitingTime="207.75" waitingCount="5" timeLoss="209.50"/>
    <tripinfo id="veh53" depart="935.86" arrival="1012.63" duration="76.77" routeLength="423.17" waitingTime="45.91" waitingCount="1" timeLoss="48.57"/>
    <tripinfo id="veh54" depart="594.36" arrival="649.24" duration="54.88" routeLength="530.34" waitingTime="12.72" waitingCount="1" timeLoss="14.02"/>
    <tripinfo id="veh55" depart="1254.98" arrival="1331.36" duration="76.39" routeLength="657.99" waitingTime="23.63" waitingCount="1" timeLoss="26.09"/>
    <tripinfo id="veh56" depart="541.71" arrival="570.57" duration="28.86" routeLength="365.19" waitingTime="0.01" waitingCount="0" timeLoss="2.33"/>
    <tripinfo id="veh57" depart="1178.47" arrival="1228.24" duration="49.77" routeLength="533.38" waitingTime="6.63" waitingCount="1" timeLoss="10.47"/>
    <tripinfo id="veh58" depart="1324.73" arrival="1374.04" duration="49.31" routeLength="220.04" waitingTime="27.77" waitingCount="1" timeLoss="28.71"/>
    <tripinfo id="veh59" depart="558.76" arrival="607.24" duration="48.48" routeLength="333.63" waitingTime="21.63" waitingCount="1" timeLoss="25.03"/>
    <tripinfo id="veh60" depart="131.09" arrival="192.39" duration="61.30" routeLength="688.76" waitingTime="9.45" waitingCount="1" timeLoss="11.05"/>
    <tripinfo id="veh61" depart="265.63" arrival="374.90" duration="109.28" routeLength="733.82" waitingTime="55.17" waitingCount="1" timeLoss="58.39"/>
    <tripinfo id="veh62" depart="1252.64" arrival="1301.23" duration="48.59" routeLength="492.35" waitingTime="8.36" waitingCount="1" timeLoss="11.03"/>
    <tripinfo id="veh63" depart="1778.21" arrival="1884.12" duration="105.92" routeLength="609.49" waitingTime="57.75" waitingCount="2" timeLoss="59.77"/>
    <tripinfo id="veh64" depart="1495.02" arrival="1548.07" duration="53.04" routeLength="487.55" waitingTime="13.46" waitingCount="1" timeLoss="16.82"/>
    <tripinfo id="veh65" depart="499.16" arrival="562.04" duration="62.88" routeLength="355.95" waitingTime="36.81" waitingCount="1" timeLoss="37.95"/>
    <tripinfo id="veh66" depart="489.09" arrival="518.42" duration="29.33" routeLength="263.12" waitingTime="8.10" waitingCount="1" timeLoss="8.71"/>
    <tripinfo id="veh67" depart="385.12" arrival="424.54" duration="39.43" routeLength="461.83" waitingTime="4.96" waitingCount="1" timeLoss="6.64"/>
    <tripinfo id="veh68" depart="1628.71" arrival="1717.19" duration="88.48" routeLength="507.73" waitingTime="46.30" waitingCount="2" timeLoss="47.49"/>
    <tripinfo id="veh69" depart="701.98" arrival="916.67" duration="214.69" routeLength="710.64" waitingTime="160.29" waitingCount="5" timeLoss="162.70"/>
    <tripinfo id="veh70" depart="396.97" arrival="439.29" duration="42.32" routeLength="441.64" waitingTime="6.54" waitingCount="1" timeLoss="9.73"/>
    <tripinfo id="veh71" depart="1303.53" arrival="1423.18" duration="119.66" routeLength="830.20" waitingTime="56.38" waitingCount="1" timeLoss="59.03"/>
    <tripinfo id="veh72" depart="151.11" arrival="179.89" duration="28.78" routeLength="187.71" waitingTime="13.00" waitingCount="1" timeLoss="13.85"/>
    <tripinfo id="veh73" depart="588.32" arrival="645.28" duration="56.96" routeLength="339.20" waitingTime="32.06" waitingCount="1" timeLoss="32.14"/>
    <tripinfo id="veh74" depart="970.95" arrival="1255.18" duration="284.23" routeLength="201.46" waitingTime="263.99" waitingCount="6" timeLoss="264.15"/>
    <tripinfo id="veh75" depart="55.85" arrival="94.95" duration="39.09" routeLength="328.91" waitingTime="12.59" waitingCount="1" timeLoss="13.05"/>
    <tripinfo id="veh76" depart="1705.96" arrival="1733.29" duration="27.33" routeLength="275.84" waitingTime="3.84" waitingCount="1" timeLoss="6.84"/>
    <tripinfo id="veh77" depart="206.16" arrival="312.16" duration="106.00" routeLength="584.01" waitingTime="58.41" waitingCount="1" timeLoss="60.72"/>
    <tripinfo id="veh78" depart="1634.45" arrival="1667.60" duration="33.16" routeLength="207.00" waitingTime="14.12" waitingCount="1" timeLoss="16.63"/>
    <tripinfo id="veh79" depart="183.42" arrival="293.83" duration="110.41" routeLength="747.17" waitingTime="53.26" waitingCount="1" timeLoss="53.43"/>
    <tripinfo id="veh80" depart="958.94" arrival="991.04" duration="32.10" routeLength="159.49" waitingTime="18.10" waitingCount="1" timeLoss="20.06"/>
    <tripinfo id="veh81" depart="780.34" arrival="845.28" duration="64.94" routeLength="680.48" waitingTime="13.37" waitingCount="1" timeLoss="16.31"/>
    <tripinfo id="veh82" depart="1737.85" arrival="1790.80" duration="52.95" routeLength="498.66" waitingTime="12.12" waitingCount="1" timeLoss="14.49"/>
    <tripinfo id="veh83" depart="580.15" arrival="653.99" duration="73.84" routeLength="811.22" waitingTime="14.02" waitingCount="1" timeLoss="15.88"/>
    <tripinfo id="veh84" depart="1098.60" arrival="1156.82" duration="58.23" routeLength="788.21" waitingTime="0.43" waitingCount="0" timeLoss="1.28"/>
    <tripinfo id="veh85" depart="1436.10" arrival="1493.18" duration="57.08" routeLength="566.84" waitingTime="13.20" waitingCount="1" timeLoss="13.97"/>
    <tripinfo id="veh86" depart="434.44" arrival="494.70" duration="60.26" routeLength="667.96" waitingTime="8.33" waitingCount="1" timeLoss="10.29"/>
    <tripinfo id="veh87" depart="1427.28" arrival="1461.41" duration="34.13" routeLength="379.65" waitingTime="3.32" waitingCount="1" timeLoss="5.22"/>
    <tripinfo id="veh88" depart="955.66" arrival="999.34" duration="43.69" routeLength="413.86" waitingTime="11.19" waitingCount="1" timeLoss="12.42"/>
    <tripinfo id="veh89" depart="414.97" arrival="469.73" duration="54.76" routeLength="293.66" waitingTime="29.20" waitingCount="1" timeLoss="30.31"/>
    <tripinfo id="veh90" depart="1061.26" arrival="1160.61" duration="99.35" routeLength="774.47" waitingTime="41.86" waitingCount="1" timeLoss="43.30"/>
    <tripinfo id="veh91" depart="544.08" arrival="631.46" duration="87.38" routeLength="880.72" waitingTime="20.70" waitingCount="1" timeLoss="23.49"/>
    <tripinfo id="veh92" depart="227.30" arrival="390.79" duration="163.49" routeLength="580.55" waitingTime="118.91" waitingCount="1" timeLoss="120.67"/>
    <tripinfo id="veh93" depart="331.85" arrival="363.31" duration="31.46" routeLength="235.57" waitingTime="14.12" waitingCount="1" timeLoss="16.08"/>
    <tripinfo id="veh94" depart="1038.64" arrival="1077.34" duration="38.70" routeLength="213.89" waitingTime="21.83" waitingCount="1" timeLoss="24.06"/>
    <tripinfo id="veh95" depart="749.11" arrival="829.70" duration="80.58" routeLength="487.89" waitingTime="42.83" waitingCount="2" timeLoss="46.27"/>
    <tripinfo id="veh96" depart="1782.06" arrival="1854.54" duration="72.48" routeLength="860.69" waitingTime="9.32" waitingCount="1" timeLoss="10.16"/>
    <tripinfo id="veh97" depart="1188.77" arrival="1213.07" duration="24.30" routeLength="267.40" waitingTime="2.61" waitingCount="1" timeLoss="5.36"/>
    <tripinfo id="veh98" depart="845.84" arrival="901.61" duration="55.77" routeLength="677.24" waitingTime="4.32" waitingCount="1" timeLoss="7.07"/>
    <tripinfo id="veh99" depart="1663.04" arrival="1743.17" duration="80.13" routeLength="468.85" waitingTime="43.13" waitingCount="1" timeLoss="45.72"/>
    <tripinfo id="veh100" depart="1635.14" arrival="1710.48" duration="75.34" routeLength="744.47" waitingTime="18.21" waitingCount="1" timeLoss="21.51"/>
    <tripinfo id="veh101" depart="1658.15" arrival="1719.38" duration="61.23" routeLength="674.80" waitingTime="7.03" waitingCount="1" timeLoss="9.03"/>
    <tripinfo id="veh102" depart="888.83" arrival="925.47" duration="36.63" routeLength="474.02" waitingTime="0.60" waitingCount="0" timeLoss="1.60"/>
    <tripinfo id="veh103" depart="164.39" arrival="367.30" duration="202.91" routeLength="590.34" waitingTime="160.32" waitingCount="5" timeLoss="163.37"/>
    <tripinfo id="veh104" depart="1478.56" arrival="1567.99" duration="89.43" routeLength="502.88" waitingTime="49.34" waitingCount="1" timeLoss="53.00"/>
    <tripinfo id="veh105" depart="326.68" arrival="436.14" duration="109.46" routeLength="876.79" waitingTime="43.57" waitingCount="2" timeLoss="45.20"/>
    <tripinfo id="veh106" depart="577.90" arrival="630.27" duration="52.36" routeLength="670.26" waitingTime="2.41" waitingCount="1" timeLoss="6.19"/>
    <tripinfo id="veh107" depart="1464.42" arrival="1524.99" duration="60.57" routeLength="339.30" waitingTime="35.47" waitingCount="1" timeLoss="38.56"/>
    <tripinfo id="veh108" depart="1556.84" arrival="1606.11" duration="49.27" routeLength="459.94" waitingTime="15.05" waitingCount="1" timeLoss="16.50"/>
    <tripinfo id="veh109" depart="1361.60" arrival="1436.78" duration="75.19" routeLength="350.29" waitingTime="49.20" waitingCount="1" timeLoss="50.35"/>
    <tripinfo id="veh110" depart="1585.52" arrival="1635.54" duration="50.01" routeLength="622.52" waitingTime="0.43" waitingCount="0" timeLoss="3.27"/>
    <tripinfo id="veh111" depart="559.35" arrival="635.28" duration="75.93" routeLength="894.19" waitingTime="6.12" waitingCount="1" timeLoss="7.97"/>
    <tripinfo id="veh112" depart="211.44" arrival="288.76" duration="77.32" routeLength="531.65" waitingTime="37.43" waitingCount="1" timeLoss="40.77"/>
    <tripinfo id="veh113" depart="1764.44" arrival="1797.38" duration="32.94" routeLength="292.96" waitingTime="8.27" waitingCount="1" timeLoss="11.25"/>
    <tripinfo id="veh114" depart="245.72" arrival="291.16" duration="45.45" routeLength="404.91" waitingTime="11.59" waitingCount="1" timeLoss="12.66"/>
    <tripinfo id="veh115" depart="4.62" arrival="117.46" duration="112.84" routeLength="798.95" waitingTime="52.69" waitingCount="2" timeLoss="54.62"/>
    <tripinfo id="veh116" depart="598.39" arrival="693.96" duration="95.57" routeLength="802.20" waitingTime="31.97" waitingCount="1" timeLoss="32.93"/>
    <tripinfo id="veh117" depart="689.35" arrival="853.85" duration="164.50" routeLength="708.53" waitingTime="109.29" waitingCount="2" timeLoss="112.54"/>
    <tripinfo id="veh118" depart="694.94" arrival="784.62" duration="89.67" routeLength="521.50" waitingTime="51.93" waitingCount="1" timeLoss="53.94"/>
    <tripinfo id="veh119" depart="1062.32" arrival="1248.86" duration="186.54" routeLength="224.78" waitingTime="164.90" waitingCount="4" timeLoss="164.96"/>
    <tripinfo id="veh120" depart="259.48" arrival="477.81" duration="218.33" routeLength="502.12" waitingTime="176.39" waitingCount="1" timeLoss="177.75"/>
    <tripinfo id="veh121" depart="1246.87" arrival="1366.23" duration="119.36" routeLength="865.60" waitingTime="53.33" waitingCount="2" timeLoss="56.88"/>
    <tripinfo id="veh122" depart="878.31" arrival="937.94" duration="59.63" routeLength="623.37" waitingTime="9.26" waitingCount="1" timeLoss="13.25"/>
    <tripinfo id="veh123" depart="1344.18" arrival="1395.88" duration="51.70" routeLength="625.31" waitingTime="1.48" waitingCount="0" timeLoss="3.25"/>
    <tripinfo id="veh124" depart="1249.20" arrival="1343.59" duration="94.39" routeLength="370.03" waitingTime="65.52" waitingCount="1" timeLoss="66.10"/>
    <tripinfo id="veh125" depart="956.10" arrival="1030.66" duration="74.56" routeLength="281.30" waitingTime="50.66" waitingCount="1" timeLoss="52.19"/>
    <tripinfo id="veh126" depart="1229.64" arrival="1275.59" duration="45.94" routeLength="495.86" waitingTime="8.75" waitingCount="1" timeLoss="9.77"/>
    <tripinfo id="veh127" depart="16.92" arrival="92.92" duration="76.00" routeLength="205.40" waitingTime="55.55" waitingCount="1" timeLoss="59.51"/>
    <tripinfo id="veh128" depart="538.48" arrival="738.91" duration="200.43" routeLength="783.98" waitingTime="142.84" waitingCount="4" timeLoss="144.38"/>
    <tripinfo id="veh129" depart="869.77" arrival="944.48" duration="74.70" routeLength="894.52" waitingTime="8.58" waitingCount="1" timeLoss="12.49"/>
    <tripinfo id="veh130" depart="1184.81" arrival="1257.70" duration="72.89" routeLength="832.96" waitingTime="8.49" waitingCount="1" timeLoss="11.82"/>
    <tripinfo id="veh131" depart="1625.28" arrival="1674.39" duration="49.10" routeLength="314.25" waitingTime="25.36" waitingCount="1" timeLoss="26.36"/>
    <tripinfo id="veh132" depart="1360.04" arrival="1455.79" duration="95.75" routeLength="621.19" waitingTime="45.64" waitingCount="1" timeLoss="48.22"/>
    <tripinfo id="veh133" depart="556.08" arrival="582.20" duration="26.12" routeLength="217.60" waitingTime="8.69" waitingCount="1" timeLoss="11.68"/>
    <tripinfo id="veh134" depart="316.15" arrival="369.16" duration="53.01" routeLength="548.14" waitingTime="8.09" waitingCount="1" timeLoss="11.41"/>
    <tripinfo id="veh135" depart="462.55" arrival="552.33" duration="89.79" routeLength="709.92" waitingTime="36.68" waitingCount="1" timeLoss="37.14"/>
    <tripinfo id="veh136" depart="1733.21" arrival="1815.52" duration="82.31" routeLength="875.45" waitingTime="14.50" waitingCount="1" timeLoss="15.96"/>
    <tripinfo id="veh137" depart="1423.23" arrival="1466.45" duration="43.22" routeLength="426.44" waitingTime="8.05" waitingCount="1" timeLoss="9.10"/>
    <tripinfo id="veh138" depart="685.85" arrival="757.51" duration="71.66" routeLength="503.61" waitingTime="31.72" waitingCount="1" timeLoss="35.49"/>
    <tripinfo id="veh139" depart="590.41" arrival="696.23" duration="105.82" routeLength="832.04" waitingTime="44.14" waitingCount="2" timeLoss="45.78"/>
    <tripinfo id="veh140" depart="251.60" arrival="366.59" duration="114.99" routeLength="237.09" waitingTime="96.52" waitingCount="2" timeLoss="98.67"/>
    <tripinfo id="veh141" depart="699.56" arrival="760.65" duration="61.08" routeLength="590.51" waitingTime="14.24" waitingCount="1" timeLoss="17.78"/>
    <tripinfo id="veh142" depart="1178.86" arrival="1236.34" duration="57.48" routeLength="174.54" waitingTime="42.70" waitingCount="2" timeLoss="44.48"/>
    <tripinfo id="veh143" depart="1711.00" arrival="1828.96" duration="117.96" routeLength="558.35" waitingTime="71.92" waitingCount="2" timeLoss="73.36"/>
    <tripinfo id="veh144" depart="716.65" arrival="777.76" duration="61.11" routeLength="786.02" waitingTime="1.83" waitingCount="0" timeLoss="4.48"/>
    <tripinfo id="veh145" depart="1155.07" arrival="1195.72" duration="40.65" routeLength="332.68" waitingTime="15.96" waitingCount="1" timeLoss="18.22"/>
    <tripinfo id="veh146" depart="123.50" arrival="203.88" duration="80.38" routeLength="759.79" waitingTime="24.32" waitingCount="1" timeLoss="27.42"/>
    <tripinfo id="veh147" depart="1419.56" arrival="1514.35" duration="94.79" routeLength="890.65" waitingTime="27.48" waitingCount="1" timeLoss="30.67"/>
    <tripinfo id="veh148" depart="197.87" arrival="328.53" duration="130.66" routeLength="742.49" waitingTime="75.82" waitingCount="2" timeLoss="77.11"/>
    <tripinfo id="veh149" depart="313.64" arrival="378.65" duration="65.01" routeLength="709.25" waitingTime="11.13" waitingCount="1" timeLoss="14.24"/>
    <tripinfo id="veh150" depart="923.83" arrival="986.87" duration="63.04" routeLength="695.43" waitingTime="7.56" waitingCount="1" timeLoss="10.19"/>
    <tripinfo id="veh151" depart="542.93" arrival="618.40" duration="75.47" routeLength="785.47" waitingTime="16.40" waitingCount="1" timeLoss="16.83"/>
    <tripinfo id="veh152" depart="1282.32" arrival="1339.82" duration="57.50" routeLength="606.22" waitingTime="13.49" waitingCount="1" timeLoss="14.59"/>
    <tripinfo id="veh153" depart="1139.54" arrival="1183.32" duration="43.78" routeLength="490.29" waitingTime="4.88" waitingCount="1" timeLoss="5.27"/>
    <tripinfo id="veh154" depart="1263.20" arrival="1440.64" duration="177.44" routeLength="472.55" waitingTime="138.11" waitingCount="2" timeLoss="139.77"/>
    <tripinfo id="veh155" depart="1489.35" arrival="1538.11" duration="48.75" routeLength="470.07" waitingTime="10.94" waitingCount="1" timeLoss="12.44"/>
    <tripinfo id="veh156" depart="274.75" arrival="359.21" duration="84.46" routeLength="219.92" waitingTime="68.06" waitingCount="1" timeLoss="71.01"/>
    <tripinfo id="veh157" depart="1461.18" arrival="1551.98" duration="90.80" routeLength="652.51" waitingTime="41.39" waitingCount="2" timeLoss="44.89"/>
    <tripinfo id="veh158" depart="1694.03" arrival="1774.42" duration="80.38" routeLength="876.30" waitingTime="13.74" waitingCount="1" timeLoss="15.14"/>
    <tripinfo id="veh159" depart="1040.25" arrival="1108.71" duration="68.46" routeLength="785.46" waitingTime="9.85" waitingCount="1" timeLoss="12.08"/>
    <tripinfo id="veh160" depart="206.79" arrival="272.43" duration="65.63" routeLength="783.87" waitingTime="3.39" waitingCount="1" timeLoss="6.67"/>
    <tripinfo id="veh161" depart="1104.43" arrival="1134.61" duration="30.17" routeLength="171.71" waitingTime="16.18" waitingCount="1" timeLoss="19.23"/>
    <tripinfo id="veh162" depart="1658.77" arrival="1705.24" duration="46.47" routeLength="574.74" waitingTime="2.72" waitingCount="1" timeLoss="3.29"/>
    <tripinfo id="veh163" depart="1139.71" arrival="1184.71" duration="45.00" routeLength="432.15" waitingTime="11.19" waitingCount="1" timeLoss="11.82"/>
    <tripinfo id="veh164" depart="560.95" arrival="634.46" duration="73.51" routeLength="812.51" waitingTime="14.12" waitingCount="1" timeLoss="17.14"/>
    <tripinfo id="veh165" depart="89.57" arrival="135.87" duration="46.30" routeLength="514.25" waitingTime="6.65" waitingCount="1" timeLoss="7.74"/>
    <tripinfo id="veh166" depart="1358.90" arrival="1416.29" duration="57.39" routeLength="658.66" waitingTime="6.45" waitingCount="1" timeLoss="8.56"/>
    <tripinfo id="veh167" depart="555.15" arrival="582.94" duration="27.78" routeLength="155.77" waitingTime="14.77" waitingCount="1" timeLoss="15.61"/>
    <tripinfo id="veh168" depart="247.02" arrival="292.16" duration="45.13" routeLength="523.04" waitingTime="4.92" waitingCount="1" timeLoss="5.44"/>
    <tripinfo id="veh169" depart="958.65" arrival="986.88" duration="28.23" routeLength="204.06" waitingTime="8.38" waitingCount="1" timeLoss="8.55"/>
    <tripinfo id="veh170" depart="33.73" arrival="233.57" duration="199.83" routeLength="471.96" waitingTime="163.45" waitingCount="5" timeLoss="166.01"/>
    <tripinfo id="veh171" depart="521.13" arrival="593.36" duration="72.23" routeLength="750.99" waitingTime="14.49" waitingCount="1" timeLoss="17.82"/>
    <tripinfo id="veh172" depart="1655.59" arrival="1704.95" duration="49.37" routeLength="476.76" waitingTime="12.67" waitingCount="1" timeLoss="12.98"/>
    <tripinfo id="veh173" depart="1566.94" arrival="1610.63" duration="43.68" routeLength="207.28" waitingTime="24.97" waitingCount="1" timeLoss="27.09"/>
    <tripinfo id="veh174" depart="349.03" arrival="404.24" duration="55.22" routeLength="327.20" waitingTime="30.80" waitingCount="1" timeLoss="31.59"/>
    <tripinfo id="veh175" depart="1084.32" arrival="1194.70" duration="110.39" routeLength="863.47" waitingTime="44.50" waitingCount="1" timeLoss="46.35"/>
    <tripinfo id="veh176" depart="1014.72" arrival="1121.56" duration="106.84" routeLength="798.19" waitingTime="45.65" waitingCount="2" timeLoss="46.25"/>
    <tripinfo id="veh177" depart="122.92" arrival="172.27" duration="49.36" routeLength="593.56" waitingTime="4.54" waitingCount="1" timeLoss="4.84"/>
    <tripinfo id="veh178" depart="831.14" arrival="856.78" duration="25.65" routeLength="207.55" waitingTime="5.53" waitingCount="1" timeLoss="8.95"/>
    <tripinfo id="veh179" depart="1107.02" arrival="1153.87" duration="46.86" routeLength="487.30" waitingTime="6.94" waitingCount="1" timeLoss="9.55"/>
    <tripinfo id="veh180" depart="578.75" arrival="620.98" duration="42.23" routeLength="487.89" waitingTime="2.26" waitingCount="1" timeLoss="5.61"/>
    <tripinfo id="veh181" depart="1768.29" arrival="1804.77" duration="36.48" routeLength="335.81" waitingTime="9.69" waitingCount="1" timeLoss="11.45"/>
    <tripinfo id="veh182" depart="940.95" arrival="982.88" duration="41.93" routeLength="440.56" waitingTime="5.59" waitingCount="1" timeLoss="8.31"/>
    <tripinfo id="veh183" depart="94.26" arrival="144.28" duration="50.02" routeLength="220.88" waitingTime="30.06" waitingCount="1" timeLoss="31.20"/>
    <tripinfo id="veh184" depart="1302.72" arrival="1390.78" duration="88.06" routeLength="400.02" waitingTime="55.79" waitingCount="1" timeLoss="56.35"/>
    <tripinfo id="veh185" depart="629.68" arrival="795.50" duration="165.82" routeLength="246.71" waitingTime="143.82" waitingCount="4" timeLoss="144.16"/>
    <tripinfo id="veh186" depart="1006.06" arrival="1087.76" duration="81.70" routeLength="652.59" waitingTime="29.78" waitingCount="1" timeLoss="32.74"/>
    <tripinfo id="veh187" depart="1233.75" arrival="1281.77" duration="48.03" routeLength="531.37" waitingTime="9.69" waitingCount="1" timeLoss="10.93"/>
    <tripinfo id="veh188" depart="1712.10" arrival="1747.44" duration="35.33" routeLength="319.91" waitingTime="11.49" waitingCount="1" timeLoss="11.80"/>
    <tripinfo id="veh189" depart="1519.97" arrival="1583.30" duration="63.33" routeLength="646.45" waitingTime="11.56" waitingCount="1" timeLoss="14.04"/>
    <tripinfo id="veh190" depart="1075.04" arrival="1127.72" duration="52.68" routeLength="690.89" waitingTime="2.71" waitingCount="1" timeLoss="4.17"/>
    <tripinfo id="veh191" depart="1295.25" arrival="1453.38" duration="158.12" routeLength="325.50" waitingTime="133.27" waitingCount="4" timeLoss="137.13"/>
    <tripinfo id="veh192" depart="1411.87" arrival="1562.95" duration="151.08" routeLength="860.35" waitingTime="83.28" waitingCount="3" timeLoss="85.13"/>
    <tripinfo id="veh193" depart="507.19" arrival="574.78" duration="67.59" routeLength="762.67" waitingTime="7.91" waitingCount="1" timeLoss="8.47"/>
    <tripinfo id="veh194" depart="450.01" arrival="556.61" duration="106.61" routeLength="683.55" waitingTime="54.34" waitingCount="1" timeLoss="54.83"/>